61515
Lattice="82.2189466119259 0.0 5.034458489878109e-15 41.10947330596292 71.20369643832433 5.034458489878108e-15 0.0 0.0 27.27216732342242" Properties=species:S:1:pos:R:3 hash=a44d5f1a5d258360cf4ae9ff8beee5693954981a1e6f801fbd68e487be138bc8 generation=15 parents="8607 5882" operation=crossover id=9601 mutation_list=1 T=0.05 F=-114814.640625 energy=-1033331.765625 pbc="T T T"
Cu       2.56934208       1.48341034       3.04892951
Cu      12.84671041      19.28433445       3.04892951
Cu      23.12407873      37.08525856       3.04892951
Cu      33.40144706      54.88618267       3.04892951
Cu      43.67881539       1.48341034       3.04892951
Cu      53.95618371      19.28433445       3.04892951
Cu      64.23355204      37.08525856       3.04892951
Cu      74.51092037      54.88618267       3.04892951
Cu      23.12407873       1.48341034       3.04892951
Cu      33.40144706      19.28433445       3.04892951
Cu      43.67881539      37.08525856       3.04892951
Cu      53.95618371      54.88618267       3.04892951
Cu      64.23355204       1.48341034       3.04892951
Cu      74.51092037      19.28433445       3.04892951
Cu      84.78828869      37.08525856       3.04892951
Cu      95.06565702      54.88618267       3.04892951
Cu       6.43123279       2.22478474       5.12749474
Cu      16.70860116      20.02570836       5.12749404
Cu      26.98597040      37.82663374       5.12749534
Cu      37.26333782      55.62755679       5.12749399
Cu      47.54070702       2.22478554       5.12749544
Cu      57.81807494      20.02570953       5.12749551
Cu      68.09544327      37.82663363       5.12749548
Cu      78.37281082      55.62755602       5.12749855
Cu      26.97949570       2.22709780       5.12965780
Cu      37.25686379      20.02802303       5.12965974
Cu      47.53423214      37.82894703       5.12965975
Cu      57.81160169      55.62986998       5.12965924
Cu      68.08896852       2.22709848       5.12965930
Cu      78.36633705      20.02802249       5.12965983
Cu      88.64370518      37.82894638       5.12965979
Cu      98.92107344      55.62987052       5.12966003
Cu      21.81648146      36.32342744       7.21365940
Cu      42.37122028       0.72157926       7.21365864
Cu      22.99350384      37.03560821       9.29653011
Cu      43.54824211       1.43376005       9.29652961
Cu      24.35283666      37.74155811      11.33946721
Cu      44.90757319       2.13970930      11.33946823
Cu      34.67537844      20.00193115      11.21333921
Cu      44.95274323      37.80285700      11.21333931
Cu       3.85401312       3.70852586       3.04892951
Cu      14.13138145      21.50944997       3.04892951
Cu      24.40874977      39.31037408       3.04892951
Cu      34.68611810      57.11129819       3.04892951
Cu      44.96348643       3.70852586       3.04892951
Cu      55.24085475      21.50944997       3.04892951
Cu      65.51822308      39.31037408       3.04892951
Cu      75.79559141      57.11129819       3.04892951
Cu      24.40874977       3.70852586       3.04892951
Cu      34.68611810      21.50944997       3.04892951
Cu      44.96348643      39.31037408       3.04892951
Cu      55.24085475      57.11129819       3.04892951
Cu      65.51822308       3.70852586       3.04892951
Cu      75.79559141      21.50944997       3.04892951
Cu      86.07295973      39.31037408       3.04892951
Cu      96.35032806      57.11129819       3.04892951
Cu       5.13886882       0.00029891       5.12051161
Cu      15.41623693      17.80122261       5.12051166
Cu      25.69360471      35.60214848       5.12051101
Cu      35.97097358      53.40307212       5.12050966
Cu      46.24834132       0.00030025       5.12051105
Cu      56.52571012      17.80122404       5.12051125
Cu      66.80307845      35.60214815       5.12051125
Cu      77.08044827      53.40307302       5.12051413
Cu      25.69567640       0.00182015       5.12604530
Cu      35.97304491      17.80274507       5.12604603
Cu      46.25041323      35.60366919       5.12604617
Cu      56.52778201      53.40459322       5.12604523
Cu      66.80514956       0.00182073       5.12604590
Cu      77.08251817      17.80274551       5.12604610
Cu      87.35988659      35.60366926       5.12604637
Cu      97.63725462      53.40459328       5.12604719
Cu      33.39358600      20.75920995       7.22504232
Cu      43.67095433      38.56013424       7.22504229
Cu      34.67397612      21.54662290       9.33578316
Cu      44.95134524      39.34754624       9.33578351
Cu      23.06108642      35.66815070      11.42829952
Cu      43.61582332       0.06630384      11.42830288
Cu       5.13868416       1.48341034       3.04892951
Cu      15.41605249      19.28433445       3.04892951
Cu      25.69342081      37.08525856       3.04892951
Cu      35.97078914      54.88618267       3.04892951
Cu      46.24815747       1.48341034       3.04892951
Cu      56.52552579      19.28433445       3.04892951
Cu      66.80289412      37.08525856       3.04892951
Cu      77.08026245      54.88618267       3.04892951
Cu      25.69342081       1.48341034       3.04892951
Cu      35.97078914      19.28433445       3.04892951
Cu      46.24815747      37.08525856       3.04892951
Cu      56.52552579      54.88618267       3.04892951
Cu      66.80289412       1.48341034       3.04892951
Cu      77.08026245      19.28433445       3.04892951
Cu      87.35763077      37.08525856       3.04892951
Cu      97.63499910      54.88618267       3.04892951
Cu       3.86756805       2.21453181       5.10739208
Cu      14.14493573      20.01545568       5.10739154
Cu      24.42230742      37.81637867       5.10738953
Cu      34.69967241      55.61730396       5.10739151
Cu      44.97704419       2.21453042       5.10738949
Cu      55.25441167      20.01545525       5.10739087
Cu      65.53177999      37.81637935       5.10739085
Cu      75.80914789      55.61730367       5.10739464
Cu      24.40664945       2.22520602       5.12639342
Cu      34.68401894      20.02613052       5.12639543
Cu      44.96138729      37.82705466       5.12639552
Cu      55.23875506      55.62797860       5.12639394
Cu      65.51612400       2.22520630       5.12639598
Cu      75.79349215      20.02613069       5.12639619
Cu      86.07086069      37.82705452       5.12639602
Cu      96.34822879      55.62797843       5.12639696
Cu      24.39752870      36.33978144       7.22028090
Cu      44.95226510       0.73793313       7.22028102
Cu      25.69310668      37.07894523       9.29828332
Cu      46.24784372       1.47709763       9.29828358
Cu      32.05020636      37.85351929      11.31353588
Cu      52.60493745       2.25166756      11.31354382
Cu       6.42335520       3.70852586       3.04892951
Cu      16.70072353      21.50944997       3.04892951
Cu      26.97809185      39.31037408       3.04892951
Cu      37.25546018      57.11129819       3.04892951
Cu      47.53282851       3.70852586       3.04892951
Cu      57.81019683      21.50944997       3.04892951
Cu      68.08756516      39.31037408       3.04892951
Cu      78.36493349      57.11129819       3.04892951
Cu      26.97809185       3.70852586       3.04892951
Cu      37.25546018      21.50944997       3.04892951
Cu      47.53282851      39.31037408       3.04892951
Cu      57.81019683      57.11129819       3.04892951
Cu      68.08756516       3.70852586       3.04892951
Cu      78.36493349      21.50944997       3.04892951
Cu      88.64230181      39.31037408       3.04892951
Cu      98.91967014      57.11129819       3.04892951
Cu      12.84923629      17.79335053       5.12689586
Cu      23.12660600      35.59427423       5.12689689
Cu      33.40397286      53.39519823       5.12689658
Cu      43.68134209      71.19612297       5.12689560
Cu      53.95871117      17.79335037       5.12689627
Cu      64.23607951      35.59427449       5.12689627
Cu      74.51344827      53.39519887       5.12689691
Cu      84.79081590      71.19612241       5.12689698
Cu      33.39966478      17.80023662       5.12989523
Cu      43.67703297      35.60116067       5.12989529
Cu      53.95440159      53.40208488       5.12989375
Cu      64.23176903      71.20300916       5.12989332
Cu      74.50913855      17.80023716       5.12989383
Cu      84.78650736      35.60116120       5.12989371
Cu      95.06387549      53.40208533       5.12989448
Cu     105.34124407      71.20300941       5.12989378
Cu      35.96101690      20.77066103       7.21899478
Cu      46.23838535      38.57158498       7.21899505
Cu      37.23107005      21.52816454       9.32301188
Cu      47.50843943      39.32908703       9.32301527
Cu      25.68380243      35.60952492      11.32351493
Cu      46.23853867       0.00767679      11.32351491
O       26.83006140      36.50957945      14.30189617
O       47.34953289       0.90935922      14.24312005
O       23.33250515      36.06107781      13.36318138
O       43.84552341       0.43627389      13.40379217
Cu      31.66908454      19.55249690      13.91028419
Cu      41.94647203      37.35341901      13.91030279
Cu      37.48323428      20.93774521      13.66323976
Cu       7.70802624       1.48341034       3.04892951
Cu      17.98539457      19.28433445       3.04892951
Cu      28.26276290      37.08525856       3.04892951
Cu      38.54013122      54.88618267       3.04892951
Cu      48.81749955       1.48341034       3.04892951
Cu      59.09486788      19.28433445       3.04892951
Cu      69.37223620      37.08525856       3.04892951
Cu      79.64960453      54.88618267       3.04892951
Cu      28.26276290       1.48341034       3.04892951
Cu      38.54013122      19.28433445       3.04892951
Cu      48.81749955      37.08525856       3.04892951
Cu      59.09486788      54.88618267       3.04892951
Cu      69.37223620       1.48341034       3.04892951
Cu      79.64960453      19.28433445       3.04892951
Cu      89.92697286      37.08525856       3.04892951
Cu     100.20434118      54.88618267       3.04892951
Cu       1.28066766       2.21148854       5.10786515
Cu      11.55803553      20.01241231       5.10786616
Cu      21.83540256      37.81333552       5.10786205
Cu      32.11277221      55.61426054       5.10786608
Cu      42.39013962       2.21148682       5.10786192
Cu      52.66750874      20.01241187       5.10786274
Cu      62.94487708      37.81333599       5.10786276
Cu      73.22224573      55.61426144       5.10786542
Cu      21.83482865       2.22137809       5.13734284
Cu      32.11219656      20.02230262       5.13734477
Cu      42.38956469      37.82322663       5.13734486
Cu      52.66693397      55.62415083       5.13734177
Cu      62.94430229       2.22137917       5.13734208
Cu      73.22166962      20.02230381       5.13734335
Cu      83.49903887      37.82322736       5.13734199
Cu      93.77640670      55.62415158       5.13734329
Cu      26.98004535      36.34017099       7.20624152
Cu      47.53478203       0.73832268       7.20624148
Cu      28.23509506      37.13589262       9.35479578
Cu      48.78983150       1.53404479       9.35479631
Cu      29.39751075      37.99852440      11.59920927
Cu      49.95224899       2.39667480      11.59921521
Cu       8.99269728       3.70852586       3.04892951
Cu      19.27006561      21.50944997       3.04892951
Cu      29.54743394      39.31037408       3.04892951
Cu      39.82480226      57.11129819       3.04892951
Cu      50.10217059       3.70852586       3.04892951
Cu      60.37953892      21.50944997       3.04892951
Cu      70.65690724      39.31037408       3.04892951
Cu      80.93427557      57.11129819       3.04892951
Cu      29.54743394       3.70852586       3.04892951
Cu      39.82480226      21.50944997       3.04892951
Cu      50.10217059      39.31037408       3.04892951
Cu      60.37953892      57.11129819       3.04892951
Cu      70.65690724       3.70852586       3.04892951
Cu      80.93427557      21.50944997       3.04892951
Cu      91.21164390      39.31037408       3.04892951
Cu     101.48901222      57.11129819       3.04892951
Cu      10.27942238      17.78831403       5.12132617
Cu      20.55679060      35.58923756       5.12132661
Cu      30.83415898      53.39016192       5.12132645
Cu      41.11152729      71.19108621       5.12132538
Cu      51.38889574      17.78831335       5.12132455
Cu      61.66626409      35.58923740       5.12132458
Cu      71.94363213      53.39016186       5.12132537
Cu      82.22100089      71.19108540       5.12132482
Cu      30.83014736      17.79963012       5.13133556
Cu      41.10751737      35.60055524       5.13133418
Cu      51.38488567      53.40147909       5.13133265
Cu      61.66225430      71.20240319       5.13133331
Cu      71.93962098      17.79963169       5.13133454
Cu      82.21699060      35.60055508       5.13133183
Cu      92.49435903      53.40147938       5.13133179
Cu     102.77172729      71.20240333       5.13133175
Cu      38.53371064      20.76323022       7.23466234
Cu      39.81559084      21.47014898       9.34746717
Cu      28.15765809      35.65931941      11.32756796
Cu      48.71239567       0.05747155      11.32756884
Cu      10.27736832       1.48341034       3.04892951
Cu      20.55473665      19.28433445       3.04892951
Cu      30.83210498      37.08525856       3.04892951
Cu      41.10947330      54.88618267       3.04892951
Cu      51.38684163       1.48341034       3.04892951
Cu      61.66420996      19.28433445       3.04892951
Cu      71.94157828      37.08525856       3.04892951
Cu      82.21894661      54.88618267       3.04892951
Cu      30.83210498       1.48341034       3.04892951
Cu      41.10947330      19.28433445       3.04892951
Cu      51.38684163      37.08525856       3.04892951
Cu      61.66420996      54.88618267       3.04892951
Cu      71.94157828       1.48341034       3.04892951
Cu      82.21894661      19.28433445       3.04892951
Cu      92.49631494      37.08525856       3.04892951
Cu     102.77368326      54.88618267       3.04892951
Cu       8.98553528       2.22782209       5.13442608
Cu      19.26290366      20.02874624       5.13442549
Cu      29.54027095      37.82967150       5.13442794
Cu      39.81764027      55.63059449       5.13442540
Cu      50.09500758       2.22782329       5.13442795
Cu      60.37237632      20.02874688       5.13442752
Cu      70.64974465      37.82967099       5.13442752
Cu      80.92711232      55.63059408       5.13442688
Cu      29.55167231       2.22462736       5.15030675
Cu      39.82904218      20.02555191       5.15031285
Cu      50.10640987      37.82647582       5.15031110
Cu      60.38377792      55.62739790       5.15031120
Cu      70.66114567       2.22462746       5.15030768
Cu      80.93851413      20.02555162       5.15030856
Cu      91.21588246      37.82647571       5.15030855
Cu     101.49325089      55.62739989       5.15030856
Cu      29.52431035      36.34766246       7.21033205
Cu      50.07904698       0.74581425       7.21033201
Cu      30.76088875      37.10453709       9.30002657
Cu      51.31562574       1.50268913       9.30002733
Cu      26.83066611      37.84473695      11.49504369
Cu      47.38540324       2.24288982      11.49504416
Cu      11.56203936       3.70852586       3.04892951
Cu      21.83940769      21.50944997       3.04892951
Cu      32.11677602      39.31037408       3.04892951
Cu      42.39414434      57.11129819       3.04892951
Cu      52.67151267       3.70852586       3.04892951
Cu      62.94888100      21.50944997       3.04892951
Cu      73.22624932      39.31037408       3.04892951
Cu      83.50361765      57.11129819       3.04892951
Cu      32.11677602       3.70852586       3.04892951
Cu      42.39414434      21.50944997       3.04892951
Cu      52.67151267      39.31037408       3.04892951
Cu      62.94888100      57.11129819       3.04892951
Cu      73.22624932       3.70852586       3.04892951
Cu      83.50361765      21.50944997       3.04892951
Cu      93.78098598      39.31037408       3.04892951
Cu     104.05835430      57.11129819       3.04892951
Cu      17.98481678      17.79698640       5.11726733
Cu      28.26218510      35.59791099       5.11726575
Cu      38.53955355      53.39883534       5.11726630
Cu      48.81692196      71.19975902       5.11726794
Cu      59.09429029      17.79698698       5.11726701
Cu      69.37165861      35.59791108       5.11726701
Cu      79.64902551      53.39883600       5.11726994
Cu      89.92639504      71.19975919       5.11726568
Cu      28.26750481       0.00118946       5.13473340
Cu      38.54487399      17.80211380       5.13473540
Cu      48.82224216      35.60303815       5.13473518
Cu      59.09961166      53.40396298       5.13473752
Cu      69.37697830       0.00118984       5.13473408
Cu      79.65434642      17.80211423       5.13473473
Cu      89.93171425      35.60303819       5.13473471
Cu     100.20908253      53.40396230       5.13473462
Cu      30.82442378      38.57095924       7.21369428
Cu      51.37916047       2.96911092       7.21369425
Cu      32.12415099      39.30604441       9.27694254
Cu      52.67888929       3.70419684       9.27694276
Cu      41.10527004       0.39764480      11.20098126
Cu     102.76947655      35.99949453      11.20099110
O       31.45484596      36.29830677      15.81686483
O       52.00728655       0.65816125      15.90455915
O       30.86191971      37.21065562      12.63273166
O       51.41078608       1.61130471      12.72414392
Cu      40.62327061      22.46339883      12.88046516
Cu      31.68995989      41.26552090      13.46908370
Cu      52.24470088       5.66366335      13.46908840
Cu      25.13575537      36.39904743      13.61442625
Cu      45.69046927       0.79719662      13.61441965
O       33.35410305      20.49194508      12.58740724
O       43.60987056      38.28456880      12.61064098
H       32.30295915      35.96169139      16.13170033
H       52.85773983       0.35982863      16.13171014
Cu      20.50384196      34.25041540      14.23902790
Cu      30.78120028      52.05133848      14.23901802
Cu      82.16805072      69.85226424      14.23898106
Cu       5.13868416       5.93364137       3.04892951
Cu      15.41605249      23.73456548       3.04892951
Cu      25.69342081      41.53548959       3.04892951
Cu      35.97078914      59.33641370       3.04892951
Cu      46.24815747       5.93364137       3.04892951
Cu      56.52552579      23.73456548       3.04892951
Cu      66.80289412      41.53548959       3.04892951
Cu      77.08026245      59.33641370       3.04892951
Cu      25.69342081       5.93364137       3.04892951
Cu      35.97078914      23.73456548       3.04892951
Cu      46.24815747      41.53548959       3.04892951
Cu      56.52552579      59.33641370       3.04892951
Cu      66.80289412       5.93364137       3.04892951
Cu      77.08026245      23.73456548       3.04892951
Cu      87.35763077      41.53548959       3.04892951
Cu      97.63499910      59.33641370       3.04892951
Cu       8.98573611       6.66855738       5.11498461
Cu      19.26310546      24.46948091       5.11498274
Cu      29.54047165      42.27040486       5.11498198
Cu      39.81784112      60.07132936       5.11498283
Cu      50.09520831       6.66855663       5.11498202
Cu      60.37257712      24.46948127       5.11498421
Cu      70.64994544      42.27040538       5.11498421
Cu      80.92731428      60.07132978       5.11498574
Cu      29.55117985       6.66843863       5.13384940
Cu      39.82854905      24.46936253       5.13385247
Cu      50.10591620      42.27028747       5.13385469
Cu      60.38328471      60.07121126       5.13385108
Cu      70.66065291       6.66843904       5.13385154
Cu      80.93802128      24.46936297       5.13385203
Cu      91.21538919      42.27028692       5.13385132
Cu     101.49275784      60.07121093       5.13385100
Cu      34.66671552      22.99063107       7.21676248
Cu      44.94408422      40.79155536       7.21676244
Cu      35.95209214      23.71301034       9.30800944
Cu      46.22946189      41.51393451       9.30800946
Cu      37.23946993      24.47960146      11.34006385
Cu      47.51683772      42.28052616      11.34007301
Cu       6.42335520       8.15875689       3.04892951
Cu      16.70072353      25.95968100       3.04892951
Cu      26.97809185      43.76060511       3.04892951
Cu      37.25546018      61.56152922       3.04892951
Cu      47.53282851       8.15875689       3.04892951
Cu      57.81019683      25.95968100       3.04892951
Cu      68.08756516      43.76060511       3.04892951
Cu      78.36493349      61.56152922       3.04892951
Cu      26.97809185       8.15875689       3.04892951
Cu      37.25546018      25.95968100       3.04892951
Cu      47.53282851      43.76060511       3.04892951
Cu      57.81019683      61.56152922       3.04892951
Cu      68.08756516       8.15875689       3.04892951
Cu      78.36493349      25.95968100       3.04892951
Cu      88.64230181      43.76060511       3.04892951
Cu      98.91967014      61.56152922       3.04892951
Cu       7.69951821       4.44780748       5.13442563
Cu      17.97688684      22.24873022       5.13442372
Cu      28.25425324      40.04965529       5.13442745
Cu      38.53162329      57.85057932       5.13442455
Cu      48.80898986       4.44780709       5.13442755
Cu      59.08635882      22.24873164       5.13442733
Cu      69.36372716      40.04965574       5.13442732
Cu      79.64109615      57.85057964       5.13442692
Cu      28.26193669       4.44690573       5.13225874
Cu      38.53930483      22.24783017       5.13226160
Cu      48.81667331      40.04875546       5.13226204
Cu      59.09404165      57.84967828       5.13226000
Cu      69.37140961       4.44690640       5.13226043
Cu      79.64877814      22.24783065       5.13226110
Cu      89.92614641      40.04875453       5.13226092
Cu     100.20351480      57.84967859       5.13226079
Cu      35.95888830      25.21114522       7.20855695
Cu      46.23625889      43.01206938       7.20855699
Cu      37.23170898      25.97625824       9.30365357
Cu      47.50907881      43.77718059       9.30365182
Cu      36.00316929      22.22440163      11.56758386
Cu      46.28054073      40.02532694      11.56759724
Cu       7.70802624       5.93364137       3.04892951
Cu      17.98539457      23.73456548       3.04892951
Cu      28.26276289      41.53548959       3.04892951
Cu      38.54013122      59.33641370       3.04892951
Cu      48.81749955       5.93364137       3.04892951
Cu      59.09486787      23.73456548       3.04892951
Cu      69.37223620      41.53548959       3.04892951
Cu      79.64960453      59.33641370       3.04892951
Cu      28.26276289       5.93364137       3.04892951
Cu      38.54013122      23.73456548       3.04892951
Cu      48.81749955      41.53548959       3.04892951
Cu      59.09486787      59.33641370       3.04892951
Cu      69.37223620       5.93364137       3.04892951
Cu      79.64960453      23.73456548       3.04892951
Cu      89.92697285      41.53548959       3.04892951
Cu     100.20434118      59.33641370       3.04892951
Cu       6.41448839       6.67121704       5.12440181
Cu      16.69186140      24.47213959       5.12439669
Cu      26.96922455      42.27306376       5.12440149
Cu      37.24659311      60.07398918       5.12439992
Cu      47.52396125       6.67121552       5.12440148
Cu      57.80132987      24.47214037       5.12440264
Cu      68.07869819      42.27306448       5.12440265
Cu      78.35606725      60.07398886       5.12440311
Cu      26.97328208       6.67025420       5.11836805
Cu      37.25065058      24.47117724       5.11836858
Cu      47.52802012      42.27210208       5.11837109
Cu      57.80538728      60.07302659       5.11836979
Cu      68.08275613       6.67025386       5.11837091
Cu      78.36012461      24.47117801       5.11837090
Cu      88.63749281      42.27210205       5.11837095
Cu      98.91486138      60.07302569       5.11837015
Cu      37.24296823      22.98829305       7.21352171
Cu      47.52033879      40.78921998       7.21352257
Cu      38.52338142      23.73725324       9.31503586
Cu      24.31249134      24.39551379      11.33306497
Cu      34.58984984      42.19643090      11.33306697
Cu       8.99269728       8.15875689       3.04892951
Cu      19.27006561      25.95968100       3.04892951
Cu      29.54743393      43.76060511       3.04892951
Cu      39.82480226      61.56152922       3.04892951
Cu      50.10217059       8.15875689       3.04892951
Cu      60.37953891      25.95968100       3.04892951
Cu      70.65690724      43.76060511       3.04892951
Cu      80.93427557      61.56152922       3.04892951
Cu      29.54743393       8.15875689       3.04892951
Cu      39.82480226      25.95968100       3.04892951
Cu      50.10217059      43.76060511       3.04892951
Cu      60.37953891      61.56152922       3.04892951
Cu      70.65690724       8.15875689       3.04892951
Cu      80.93427557      25.95968100       3.04892951
Cu      91.21164389      43.76060511       3.04892951
Cu     101.48901222      61.56152922       3.04892951
Cu       5.14059346       4.44973782       5.12575155
Cu      15.41796136      22.25066230       5.12574999
Cu      25.69533107      40.05158624       5.12575198
Cu      35.97269805      57.85250986       5.12574994
Cu      46.25006769       4.44973795       5.12575197
Cu      56.52743585      22.25066217       5.12575276
Cu      66.80480417      40.05158629       5.12575274
Cu      77.08217250      57.85250934       5.12575324
Cu      25.68763303       4.44922073       5.12563871
Cu      35.96500164      22.25014482       5.12564086
Cu      46.24237025      40.05106918       5.12564116
Cu      56.51973825      57.85199334       5.12564018
Cu      66.79710734       4.44922064       5.12564176
Cu      77.07447520      22.25014489       5.12564188
Cu      87.35184394      40.05106888       5.12564158
Cu      97.62921232      57.85199254       5.12564121
Cu      38.52048639      25.20795860       7.19258371
Cu      39.76364426      25.94873265       9.30481562
Cu      38.58671011      22.20952890      11.37960064
O       39.76208806      24.39371670      13.27220897
O       36.53645848      22.53474530      13.57550373
O       46.82073088      40.24593989      13.50243343
Cu      36.18055831      25.81889549      14.33384382
Cu      46.45794164      43.61984591      14.33387560
Cu      40.55502279      25.98214772      14.04839538
Cu      10.27736832       5.93364137       3.04892951
Cu      20.55473665      23.73456548       3.04892951
Cu      30.83210498      41.53548959       3.04892951
Cu      41.10947330      59.33641370       3.04892951
Cu      51.38684163       5.93364137       3.04892951
Cu      61.66420996      23.73456548       3.04892951
Cu      71.94157828      41.53548959       3.04892951
Cu      82.21894661      59.33641370       3.04892951
Cu      30.83210498       5.93364137       3.04892951
Cu      41.10947330      23.73456548       3.04892951
Cu      51.38684163      41.53548959       3.04892951
Cu      61.66420996      59.33641370       3.04892951
Cu      71.94157828       5.93364137       3.04892951
Cu      82.21894661      23.73456548       3.04892951
Cu      92.49631494      41.53548959       3.04892951
Cu     102.77368326      59.33641370       3.04892951
Cu      44.95985590       6.67526141       5.12191268
Cu      55.23722435      24.47618585       5.12191429
Cu      65.51459266      42.27710996       5.12191430
Cu      75.79196064      60.07803392       5.12191437
Cu      86.06932930       6.67526141       5.12191483
Cu      96.34669424      24.47618414       5.12190998
Cu     106.62406593      42.27710971       5.12191265
Cu     116.90143416      60.07803331       5.12191394
Cu      24.40085070       6.67155411       5.12333457
Cu      34.67821829      24.47247849       5.12333417
Cu      44.95558691      42.27340270       5.12333432
Cu      55.23295578      60.07432697       5.12333567
Cu      65.51032377       6.67155496       5.12333554
Cu      75.78769113      24.47247849       5.12333619
Cu      86.06506046      42.27340316       5.12333551
Cu      96.34242839      60.07432693       5.12333413
Cu      39.81548450      22.97780634       7.23555565
Cu      41.02958154      23.71934710       9.35862834
Cu      32.08875525      42.27179559      11.26225013
Cu      52.64349823       6.66995058      11.26226175
Cu      11.56203936       8.15875689       3.04892951
Cu      21.83940769      25.95968100       3.04892951
Cu      32.11677602      43.76060511       3.04892951
Cu      42.39414434      61.56152922       3.04892951
Cu      52.67151267       8.15875689       3.04892951
Cu      62.94888100      25.95968100       3.04892951
Cu      73.22624932      43.76060511       3.04892951
Cu      83.50361765      61.56152922       3.04892951
Cu      32.11677602       8.15875689       3.04892951
Cu      42.39414434      25.95968100       3.04892951
Cu      52.67151267      43.76060511       3.04892951
Cu      62.94888100      61.56152922       3.04892951
Cu      73.22624932       8.15875689       3.04892951
Cu      83.50361765      25.95968100       3.04892951
Cu      93.78098598      43.76060511       3.04892951
Cu     104.05835430      61.56152922       3.04892951
Cu       2.58197307       4.44123586       5.09397419
Cu      12.85934141      22.24215984       5.09397376
Cu      23.13671279      40.04308382       5.09396702
Cu      33.41407820      57.84400781       5.09397365
Cu      43.69144930       4.44123556       5.09396708
Cu      53.96881630      22.24215997       5.09397033
Cu      64.24618461      40.04308408       5.09397032
Cu      74.52355088      57.84400834       5.09397456
Cu      23.11726879       4.44562775       5.12780957
Cu      33.39463643      22.24655216       5.12781002
Cu      43.67200469      40.04747624       5.12781002
Cu      53.94937354      57.84840054       5.12780996
Cu      64.22674139       4.44562824       5.12781047
Cu      74.50410862      22.24655316       5.12781296
Cu      84.78147807      40.04747649       5.12781047