222
Lattice="2.705832879776574 11.456232910850902 0.0 21.947311166240205 -4.1921222169404977e-10 0.0 0.0 0.0 24.131506849315066" Properties=species:S:1:pos:R:3:fixed:I:1 energy=-850.3026896286214 pbc="T T T"
Cu      23.45042568      10.58830862       2.50097352        0
Cu      19.84264019       7.98461634       2.50097352        0
Cu      20.89492516      10.32794267       2.50097352        0
Cu      19.24135372       1.21502508       2.50097352        0
Cu      20.29361786       3.55835183       2.50097352        0
Cu      21.34587924       5.90166690       2.50097352        0
Cu      22.39816421       8.24499323       2.50097352        0
Cu      21.79685292       1.47539095       2.50097352        0
Cu      22.84913923       3.81871744       2.50097352        0
Cu       1.95408969       6.16203284       2.50097352        0
Cu       3.00635242       8.50535917       2.50097352        0
Cu       4.05861388      10.84867458       2.50097352        0
Cu       2.40506749       1.73576817       2.50097352        0
Cu       3.45732891       4.07908339       2.50097352        0
Cu       4.50959165       6.42240972       2.50097352        0
Cu       5.56185311       8.76572513       2.50097352        0
Cu       6.61413939      11.10905146       2.50097352        0
Cu       4.96056796       1.99613394       2.50097352        0
Cu       6.01282935       4.33944900       2.50097352        0
Cu       7.06511440       6.68277567       2.50097352        0
Cu       8.11737619       9.02609107       2.50097352        0
Cu       9.16964023      11.36941740       2.50097352        0
Cu       7.51606751       2.25649990       2.50097352        0
Cu       8.56835379       4.59982622       2.50097352        0
Cu       9.62061525       6.94314162       2.50097352        0
Cu      10.67287929       9.28646796       2.50097352        0
Cu       9.01930656       0.17355043       2.50097352        0
Cu      10.07159227       2.51687711       2.50097352        0
Cu      11.12385365       4.86019217       2.50097352        0
Cu      12.17611511       7.20350757       2.50097352        0
Cu      13.22840009       9.54683391       2.50097352        0
Cu      11.57482865       0.43391630       2.50097352        0
Cu      12.62709271       2.77724271       2.50097352        0
Cu      13.67935418       5.12055812       2.50097352        0
Cu      14.73163915       7.46388445       2.50097352        0
Cu      15.78390061       9.80719985       2.50097352        0
Cu      14.13033182       0.69429352       2.50097352        0
Cu      15.18259322       3.03760867       2.50097352        0
Cu      16.23487820       5.38093500       2.50097352        0
Cu      17.28713966       7.72425039       2.50097352        0
Cu      18.33940112      10.06756580       2.50097352        0
Cu      16.68585324       0.95465931       2.50097352        0
Cu      17.73811460       3.29797428       2.50097352        0
Cu      18.79037872       5.64130095       2.50097352        0
Cu      24.64835716      11.45919793       4.57790213        0
Cu      21.04509530       8.85459683       4.59039383        0
Cu      22.09951247      11.19074046       4.59132859        0
Cu      20.44258966       2.08878014       4.59350512        0
Cu      21.49916482       4.41992964       4.57633067        0
Cu      22.54370854       6.76676291       4.57468418        0
Cu      23.59587256       9.11545017       4.57209853        0
Cu       1.04828417       2.33397659       4.59821902        0
Cu       2.10829124       4.68381294       4.57628930        0
Cu       3.15414675       7.02676944       4.57608622        0
Cu       4.20933244       9.37007817       4.58733761        0
Cu       2.54779634       0.24847699       4.59480123        0
Cu       3.59766446       2.60144712       4.57455874        0
Cu       4.67046154       4.94782242       4.57800185        0
Cu       5.72064222       7.28463199       4.59346382        0
Cu       6.75201947       9.62920172       4.59484137        0
Cu       5.10599632       0.51959232       4.56851415        0
Cu       6.16516690       2.86298972       4.56124651        0
Cu       7.21721920       5.20961984       4.57845435        0
Cu       8.26480063       7.56050619       4.59028750        0
Cu       9.31930540       9.90282905       4.57856201        0
Cu       7.67506978       0.78517325       4.57587722        0
Cu       8.72771230       3.12694855       4.59168941        0
Cu       9.76799528       5.46768876       4.57705921        0
Cu      10.82427433       7.80825152       4.58734275        0
Cu      11.87513547      10.16231829       4.57289506        0
Cu      10.22673696       1.06134593       4.59378416        0
Cu      11.27939195       3.37962227       4.61335669        0
Cu      12.32350476       5.71893880       4.58813181        0
Cu      13.37249347       8.07313472       4.56623375        0
Cu      14.43651455      10.43312057       4.57427639        0
Cu      12.76762416       1.30101115       4.60403250        0
Cu      13.81309587       3.63621987       4.58984847        0
Cu      14.87953597       5.99794456       4.55649526        0
Cu      15.94869226       8.33988227       4.55712516        0
Cu      16.98906060      10.67472273       4.60208994        0
Cu      15.32932023       1.55747141       4.58310980        0
Cu      16.38508653       3.90094982       4.56691689        0
Cu      17.45013661       6.24276780       4.57286211        0
Cu      18.49830373       8.59372654       4.59547876        0
Cu      19.53465101      10.93119680       4.60653803        0
Cu      17.89184885       1.82109117       4.58904446        0
Cu      18.94193988       4.15814247       4.58041126        0
Cu      19.99680377       6.51299043       4.59456438        0
Cu       1.19301176       0.83625184       6.70187245        0
Cu      22.24756341       9.70781500       6.70646215        0
Cu      20.59222819       0.63169124       6.67761215        0
Cu      21.65495708       2.96941064       6.70562939        0
Cu      22.70010536       5.28678377       6.66095508        0
Cu      23.73618393       7.64153092       6.64861175        0
Cu       2.85024399       9.98416676       6.66123835        0
Cu       2.23549020       3.21067935       6.67652818        0
Cu       3.34106348       5.54434438       6.65686529        0
Cu       4.37590568       7.87645225       6.65803551        0
Cu       5.38167169      10.21542661       6.74089726        0
Cu       3.74076008       1.12010324       6.65235355        0
Cu       4.81533510       3.45468287       6.64388093        0
Cu       5.88206587       5.81293926       6.71481169        0
Cu       6.89998039       8.15739194       6.72751639        0
Cu       7.93881937      10.50644952       6.65969658        0
Cu       6.32199899       1.39396617       6.64478176        0
Cu       7.35892572       3.71945592       6.65338942        0
Cu       8.40776852       6.09132573       6.66943151        0
Cu       9.48209434       8.45241730       6.66201422        0
Cu      10.51973042      10.76899230       6.68572611        0
Cu       8.86839935       1.64956434       6.70553505        0
Cu       9.94432476       4.00016061       6.69227850        0
Cu      10.96748932       6.32284485       6.68332385        0
Cu      12.01712847       8.71028244       6.66918790        0
Cu      13.08677041      11.05813465       6.65285517        0
Cu      11.43386806       1.91604211       6.77964227        0
Cu      12.46318862       4.25372433       6.75315857        0
Cu      13.51387070       6.59667495       6.65674346        0
Cu      14.60018391       8.95947228       6.59881736        0
Cu      15.65233983      11.29359255       6.72269262        0
Cu      13.95609297       2.14730194       6.68975418        0
Cu      15.00189246       4.53011830       6.60449589        0
Cu      16.10187714       6.87049791       6.61696519        0
Cu      17.15861968       9.18194407       6.70232430        0
Cu      15.47660421       0.08624440       6.71870365        0
Cu      16.53603495       2.42478699       6.67282101        0
Cu      17.59617314       4.75107937       6.66596583        0
Cu      18.64443934       7.11475953       6.69881099        0
Cu      19.71368112       9.44251702       6.72498402        0
Cu      18.04812227       0.33891363       6.66872323        0
Cu      19.08514191       2.69596140       6.71808172        0
Cu      20.14648826       5.02283661       6.66158830        0
Cu      21.20544756       7.38970627       6.69993218        0
Cu      23.46400304      10.62258292       8.71921036        0
Cu      19.85218640       8.00333953       8.88393889        0
Cu      20.90587907      10.29201612       8.83651321        0
Cu      19.31893871       1.24020569       8.80475169        0
Cu      20.30312034       3.53630368       8.80788900        0
Cu      21.39625889       5.86385001       8.71682982        0
Cu      22.44187114       8.26137372       8.83686772        0
Cu      21.82167500       1.54143634       8.76451090        0
Cu       0.95662429       3.83522087       8.83202915        0
Cu       1.99351766       6.13388952       8.66108219        0
Cu       3.00586087       8.48502845       8.65900627        0
Cu       4.01199327      10.89827167       8.86982719        0
Cu       2.39158528       1.73985737       8.74442574        0
Cu       3.48405832       4.02203856       8.71131256        0
Cu       4.50606206       6.32130661       8.85149508        0
Cu       5.59458300       8.77173223       8.92891758        0
Cu       6.53921026      11.10702467       8.77804667        0
Cu       4.89343782       1.95002591       8.68684524        0
Cu       5.97489139       4.31121468       8.74709447        0
Cu       7.06513368       6.65795903       8.85078156        0
Cu       8.06297885       9.11724337       8.75183551        0
Cu       9.13405482      11.39503358       8.69224905        0
Cu       7.47166550       2.23224489       8.79761378        0
Cu       8.53403295       4.64406676       8.68036984        0
Cu       9.63054632       6.97915381       8.69856530        0
Cu      10.69316017       9.33058596       8.90319822        0
Cu       9.00946839       0.14742637       8.74303248        0
Cu      10.10144441       2.46287588       8.85221034        0
Cu      11.09962290       4.92746748       8.86084690        0
Cu      12.19117540       7.27337432       8.72558304        0
Cu      13.27530420       9.53521493       8.64816607        0
Cu      11.60890867       0.49171318       8.88984548        0
Cu      12.57096427       2.79283834       8.96571549        0
Cu      13.66228971       5.26725289       8.85289437        0
Cu      14.72763265       7.48237748       8.63169797        0
Cu      15.90113065       9.76277334       8.77022978        0
Cu      14.18970370       0.69109846       8.86898707        0
Cu      15.19101220       3.06771291       8.63412593        0
Cu      16.18720941       5.39538068       8.60840623        0
Cu      17.25092426       7.66505389       8.80927774        0
Cu      18.35095923       9.99858301       8.79331647        0
Cu      16.68854869       0.95705120       8.76276345        0
Cu      17.70739443       3.32210456       8.83761967        0
Cu      18.75776191       5.56695052       8.75394731        0
Cu      15.09610391       7.32711493      11.06752825        0
Cu       2.83683336       4.45783345      11.08130036        0
Cu      22.74611197       6.39394366      10.86057832        0
Cu       5.37316200      10.35531554      11.11539350        0
Cu      15.88161542       2.30182948      10.88772252        0
Cu      24.13248284       9.34450917      10.86080629        0
Cu       7.32061133       8.40643401      11.11918613        0
Cu       9.06595501       5.80344763      10.87445789        0
Cu      12.19034553       6.31036081      11.07014938        0
Cu       5.16746496      -0.01104300      10.95404036        0
Cu       5.28392384       2.93467157      10.95073958        0
Cu      10.90645135       3.27012260      11.18361389        0
Cu      17.20772608       5.24745180      10.85687599        0
Cu      12.47934727       9.04690318      10.94937947        0
Cu       9.98729422       0.40990520      11.09381394        0
Cu      18.21600103       8.37842589      11.11131797        0
Cu      12.75825173       1.29476374      11.21622123        0
Cu      20.97311495       9.01678159      11.11449918        0
Cu      21.68368312       3.22227672      11.06842934        0
Cu      18.37020518      10.98916239      11.15520804        0
Cu      19.04358137       2.59843973      11.06537662        0
Cu      21.63126938       0.57883693      11.08454102        0
Cu       5.84557758       5.49364876      11.09198573        0
O        3.54773679      10.61848242      10.90818219        0
O       17.37066261       3.41825821      10.95408230        0
O       13.38025454       7.57790503      11.61679896        0
O        6.14788463       1.41142218      10.33025805        0
O       10.80007888       5.10915565      10.90354633        0
O       16.91602020       7.07196299      10.87430631        0
O       11.09562892       1.60444497      11.92075831        0
O       11.50031730      10.58056579      10.48240134        0
O       19.38519221       9.61269597      11.78965365        0
O       22.65504697       8.23656970      10.96451543        0
O       20.59559319       1.91777103      11.74933867        0
O       22.95047992       4.55730224      10.90877727        0
O        4.52639391       4.39960156      11.74781322        0
O        7.35160686       6.54095380      10.89911992        0
O        7.04215474      10.08854899      11.82698541        0
O       14.55442847       0.97868128      10.88663722        0
O        4.25460510       7.84045804       9.98218321        0
O        9.35904760       8.40034388       9.98395524        0
O        8.68957986       3.20897538       9.93431386        0
O       13.94726003       3.74334676       9.94313085        0
O       14.53315530      10.32003990       9.92836986        0
O       20.01169640       6.37673550       9.94666188        0
O       18.08127951       0.38084826       9.98806713        0
215
Lattice="2.705832879776574 11.456232910850902 0.0 21.947311166240205 -4.1921222169404977e-10 0.0 0.0 0.0 24.131506849315066" Properties=species:S:1:pos:R:3:fixed:I:1 energy=-807.9900952836649 pbc="T T T"
Cu      23.45042568      10.58830862       2.50097352        0
Cu      19.84264019       7.98461634       2.50097352        0
Cu      20.89492516      10.32794267       2.50097352        0
Cu      19.24135372       1.21502508       2.50097352        0
Cu      20.29361786       3.55835183       2.50097352        0
Cu      21.34587924       5.90166690       2.50097352        0
Cu      22.39816421       8.24499323       2.50097352        0
Cu      21.79685292       1.47539095       2.50097352        0
Cu      22.84913923       3.81871744       2.50097352        0
Cu       1.95408969       6.16203284       2.50097352        0
Cu       3.00635242       8.50535917       2.50097352        0
Cu       4.05861388      10.84867458       2.50097352        0
Cu       2.40506749       1.73576817       2.50097352        0
Cu       3.45732891       4.07908339       2.50097352        0
Cu       4.50959165       6.42240972       2.50097352        0
Cu       5.56185311       8.76572513       2.50097352        0
Cu       6.61413939      11.10905146       2.50097352        0
Cu       4.96056796       1.99613394       2.50097352        0
Cu       6.01282935       4.33944900       2.50097352        0
Cu       7.06511440       6.68277567       2.50097352        0
Cu       8.11737619       9.02609107       2.50097352        0
Cu       9.16964023      11.36941740       2.50097352        0
Cu       7.51606751       2.25649990       2.50097352        0
Cu       8.56835379       4.59982622       2.50097352        0
Cu       9.62061525       6.94314162       2.50097352        0
Cu      10.67287929       9.28646796       2.50097352        0
Cu       9.01930656       0.17355043       2.50097352        0
Cu      10.07159227       2.51687711       2.50097352        0
Cu      11.12385365       4.86019217       2.50097352        0
Cu      12.17611511       7.20350757       2.50097352        0
Cu      13.22840009       9.54683391       2.50097352        0
Cu      11.57482865       0.43391630       2.50097352        0
Cu      12.62709271       2.77724271       2.50097352        0
Cu      13.67935418       5.12055812       2.50097352        0
Cu      14.73163915       7.46388445       2.50097352        0
Cu      15.78390061       9.80719985       2.50097352        0
Cu      14.13033182       0.69429352       2.50097352        0
Cu      15.18259322       3.03760867       2.50097352        0
Cu      16.23487820       5.38093500       2.50097352        0
Cu      17.28713966       7.72425039       2.50097352        0
Cu      18.33940112      10.06756580       2.50097352        0
Cu      16.68585324       0.95465931       2.50097352        0
Cu      17.73811460       3.29797428       2.50097352        0
Cu      18.79037872       5.64130095       2.50097352        0
Cu      24.64668750      11.46046984       4.58155945        0
Cu      21.04664270       8.85469716       4.58770066        0
Cu      22.09647830      11.19505372       4.59640715        0
Cu      20.44068960       2.08872576       4.60577093        0
Cu      21.49343009       4.42249126       4.58451446        0
Cu      22.54262186       6.76620148       4.57869678        0
Cu      23.59787363       9.11661130       4.57959985        0
Cu       1.04718733       2.33859349       4.60072919        0
Cu       2.10583664       4.68469769       4.57543458        0
Cu       3.15676507       7.03162072       4.57822463        0
Cu       4.20599143       9.37076039       4.58528418        0
Cu       2.54483664       0.25604257       4.59410002        0
Cu       3.59606498       2.60206225       4.58045066        0
Cu       4.66738082       4.94923551       4.58029412        0
Cu       5.71671520       7.28525976       4.58638953        0
Cu       6.75080240       9.62733837       4.59450331        0
Cu       5.10228732       0.51881500       4.56588039        0
Cu       6.16476319       2.86422247       4.56641142        0
Cu       7.21895373       5.20488959       4.57748035        0
Cu       8.26940939       7.55923184       4.58729358        0
Cu       9.31605748       9.89239674       4.57202314        0
Cu       7.66821864       0.78215532       4.56901445        0
Cu       8.72266501       3.12650798       4.58408905        0
Cu       9.77071390       5.47052624       4.57955455        0
Cu      10.82415777       7.80781515       4.58550509        0
Cu      11.87760444      10.15293006       4.57126395        0
Cu      10.21937157       1.05061861       4.57372413        0
Cu      11.27830998       3.38604269       4.58385830        0
Cu      12.32854082       5.72162441       4.58349590        0
Cu      13.38078877       8.07440990       4.56689296        0
Cu      14.44455040      10.42312745       4.57621949        0
Cu      12.77967811       1.29755621       4.58154335        0
Cu      13.82042738       3.64075972       4.59023678        0
Cu      14.88633980       5.99249819       4.56944638        0
Cu      15.94055417       8.33746916       4.57966424        0
Cu      16.99267501      10.67186589       4.60118024        0
Cu      15.33421291       1.56122581       4.59229907        0
Cu      16.38319581       3.90176168       4.57528851        0
Cu      17.44555116       6.24713995       4.58520657        0
Cu      18.49431993       8.59120938       4.58473506        0
Cu      19.54245993      10.94034403       4.59286252        0
Cu      17.89383289       1.82139426       4.59225331        0
Cu      18.94048268       4.16367150       4.58708653        0
Cu      19.99359871       6.51216882       4.59740835        0
Cu       1.18597810       0.84841722       6.70534430        0
Cu      22.25519794       9.70660218       6.70135094        0
Cu      20.58890690       0.62086828       6.68995228        0
Cu      21.65103629       2.96863065       6.71565427        0
Cu      22.70625721       5.28552980       6.66512248        0
Cu      23.73524885       7.63575308       6.65282592        0
Cu       2.85192200       9.99047557       6.66938770        0
Cu       2.23812746       3.21732057       6.68870876        0
Cu       3.33388213       5.55244370       6.65279015        0
Cu       4.38431743       7.88530402       6.67155562        0
Cu       5.38511929      10.23108976       6.71325087        0
Cu       3.74644704       1.12057876       6.66606468        0
Cu       4.81588175       3.45946570       6.64866388        0
Cu       5.89352796       5.80746360       6.69458749        0
Cu       6.91622344       8.14318411       6.70273858        0
Cu       7.94307261      10.50001798       6.64964295        0
Cu       6.31064707       1.38679776       6.63768108        0
Cu       7.36253750       3.70922384       6.67299043        0
Cu       8.41064480       6.08346797       6.65892494        0
Cu       9.49326633       8.44194087       6.68503594        0
Cu      10.52521163      10.75785391       6.65010313        0
Cu       8.84988232       1.65425497       6.68276091        0
Cu       9.93809963       4.00144971       6.67139542        0
Cu      10.98358276       6.31964964       6.67899316        0
Cu      12.03085714       8.68626827       6.66581964        0
Cu      13.09415421      11.04153738       6.63712858        0
Cu      11.42400273       1.90838832       6.66840290        0
Cu      12.45727157       4.24810872       6.72170796        0
Cu      13.52691190       6.60338198       6.64927166        0
Cu      14.58307935       8.95673020       6.65027676        0
Cu      15.65899125      11.29273413       6.70881471        0
Cu      13.96201052       2.15361594       6.68563838        0
Cu      15.00476255       4.52729283       6.63924936        0
Cu      16.09517432       6.86883794       6.65976959        0
Cu      17.15063342       9.17639410       6.69766774        0
Cu      15.48197838       0.08908093       6.70685597        0
Cu      16.54454087       2.42999452       6.68158244        0
Cu      17.57339846       4.76149709       6.67368949        0
Cu      18.63754344       7.12592755       6.70311568        0
Cu      19.69483524       9.46160149       6.67846673        0
Cu      18.04389468       0.34370997       6.69651239        0
Cu      19.08002296       2.70678760       6.71806268        0
Cu      20.14297625       5.02922368       6.67816972        0
Cu      21.19972677       7.39484165       6.69660954        0
Cu      23.41740988      10.61512861       8.75535646        0
Cu      19.84739345       7.97794439       8.80560428        0
Cu      20.89556446      10.32382078       8.76770970        0
Cu      19.24080770       1.22312573       8.77905824        0
Cu      20.28609086       3.56869797       8.81586971        0
Cu      21.33123293       5.90585639       8.70874824        0
Cu      22.43188446       8.22527797       8.83703912        0
Cu      21.80316905       1.52125884       8.76944198        0
Cu       0.93682342       3.86107805       8.84333376        0
Cu       2.03313204       6.15736077       8.68318739        0
Cu       3.04883865       8.46212620       8.64982026        0
Cu       4.01191594      10.84019522       8.85023267        0
Cu       2.38588380       1.73431470       8.74915743        0
Cu       3.49653509       4.05400722       8.70856976        0
Cu       4.54807927       6.40760766       8.77501392        0
Cu       5.58577175       8.75426092       8.81265099        0
Cu       6.56843802      11.09565771       8.76523126        0
Cu       4.90480112       1.95489785       8.70377513        0
Cu       6.01851819       4.33448211       8.74396681        0
Cu       7.10069036       6.68275217       8.85346176        0
Cu       8.13370665       9.04932847       8.72957911        0
Cu       9.15976370      11.33908391       8.65998979        0
Cu       7.51037528       2.24909882       8.82119517        0
Cu       8.55266146       4.56923788       8.67953099        0
Cu       9.63075566       6.97555720       8.68201248        0
Cu      10.66504288       9.28250832       8.81537179        0
Cu       9.01941593       0.19780330       8.67845520        0
Cu      10.05003051       2.49900924       8.73126691        0
Cu      11.08698526       4.86378570       8.85890476        0
Cu      12.16979379       7.21671272       8.73256689        0
Cu      13.30482896       9.58841457       8.68764351        0
Cu      11.61908268       0.44878257       8.76188897        0
Cu      12.59696819       2.78446059       8.80810710        0
Cu      13.64129652       5.14600058       8.77490550        0
Cu      14.70089951       7.48838931       8.69566955        0
Cu      15.81037883       9.80447433       8.75133095        0
Cu      14.17522576       0.70168329       8.85320264        0
Cu      15.13153703       3.09093012       8.65415408        0
Cu      16.15490124       5.38432808       8.68464919        0
Cu      17.25222254       7.67881065       8.84272162        0
Cu      18.33463109      10.02809496       8.76172953        0
Cu      16.72280396       0.94184931       8.76360615        0
Cu      17.70315933       3.31998610       8.84290233        0
Cu      18.80283252       5.62884610       8.71518671        0
Cu      15.30665341       7.15025411      11.08007988        0
Cu       2.85814458       4.45016800      11.07938848        0
Cu      22.70839006       6.26092930      10.84943213        0
Cu       5.40125517      10.30683983      11.03715658        0
Cu      16.00055274       2.38456211      10.86319202        0
Cu      24.13642774       9.17999828      10.85779958        0
Cu       7.30141461       8.44664737      11.04960204        0
Cu       9.09365623       5.78212365      10.83373861        0
Cu      12.29983506       6.01190214      11.01692277        0
Cu       5.30037225       0.07180453      10.90170992        0
Cu       5.40415254       3.01351146      10.93579806        0
Cu      10.89870945       3.12778124      11.05063242        0
Cu      17.41213201       5.30688091      10.85637525        0
Cu      12.75360561       8.60288579      10.91736766        0
Cu      10.19109878       0.07326093      10.90819698        0
Cu      18.41049390       8.49304045      11.03559859        0
Cu      12.79228302       1.26331953      11.03610295        0
Cu      21.05540336       9.01718391      11.01379538        0
Cu      21.71163324       3.06798905      11.04297884        0
Cu      18.51922494      11.16366804      11.02464470        0
Cu      19.07244549       2.54291961      11.02546652        0
Cu      21.61533702       0.39424895      11.02920998        0
Cu       5.87825345       5.59038551      11.02102678        0
O        3.55363724      10.42084400      10.97398001        0
O       17.46957774       3.47832812      11.07161172        0
O       13.58452543       7.14961006      11.67929253        0
O        6.33176483       1.51271819      10.35543940        0
O       10.74995428       4.97273102      10.98821748        0
O       17.15710544       7.12939586      10.98460415        0
O       11.09086961       1.43260709      11.71996246        0
O       11.85165733      10.11481807      10.30007687        0
O       19.54672380       9.80225353      11.66660063        0
O       22.66284368       8.09016822      11.05645191        0
O       20.58156163       1.75085307      11.66892455        0
O       22.95511634       4.43693289      10.98185530        0
O        4.57544204       4.47489848      11.68624751        0
O        7.44433879       6.60178705      10.99048560        0
O        7.11319873      10.15147062      11.69528660        0
O       14.63906456       1.13959899      10.96418333        0
144
Lattice="17.981170649085204 0.0 0.0 0.9174093845830136 9.2161705836537 0.0 0.0 0.0 24.131506849315066" Properties=species:S:1:pos:R:3:fixed:I:1 energy=-544.8560706678091 pbc="T T T"
Cu       3.29478891       8.26716418       6.66321602        0
Cu       1.29125123       6.64872776       6.61927560        0
Cu       4.39242097       0.63424131       6.67799646        0
Cu       6.40311601       2.22763180       6.67590057        0
Cu       8.43868427       3.82136605       6.67354267        0
Cu      10.47511621       5.40780255       6.64354355        0
Cu      12.46998464       7.01812270       6.68391261        0
Cu      14.49401127       8.61074509       6.72471542        0
Cu      15.59753842       0.93769109       6.68666933        0
Cu      17.60906074       2.55361877       6.69928147        0
Cu       1.64988458       4.11488444       6.67295620        0
Cu       3.67344822       5.69417599       6.65426455        0
Cu       5.67626174       7.29861139       6.63086426        0
Cu       7.71738021       8.89835729       6.65098832        0
Cu       8.81369882       1.26995978       6.71321739        0
Cu      10.82328116       2.85105932       6.69886353        0
Cu      12.83953442       4.45581166       6.65915561        0
Cu      14.85392506       6.05434795       6.67522933        0
Cu      16.84426149       7.62799795       6.66067846        0
Cu       0.01720981       0.00825213       6.63804706        0
Cu       2.01064410       1.57639374       6.72115179        0
Cu       4.04587392       3.16354774       6.71855775        0
Cu       6.08351703       4.74516869       6.74263502        0
Cu       8.07654038       6.32475780       6.66178081        0
Cu      10.08686764       7.97663838       6.69246028        0
Cu      11.19549293       0.34478532       6.74617797        0
Cu      13.21169267       1.91752270       6.68628590        0
Cu      15.24593951       3.49512743       6.68120570        0
Cu      17.23196559       5.09205396       6.65933139        0