20
Lattice="5.138684163245369 0.0 3.146536556173818e-16 2.5693420816226826 4.4502310273952705 3.1465365561738175e-16 0.0 0.0 27.27216732342242" Properties=species:S:1:pos:R:3 energy=-70.85831025826957 pbc="T T T"
Cu       2.56934208       1.48341034       3.04892951
Cu       1.28467104       2.22511551       5.14678854
Cu       1.28467104       0.74170517       7.23535137
Cu       2.56934208       1.48341034       9.32137484
Cu       3.85401312       2.22511551      11.39715382
Cu       3.85401312       3.70852586       3.04892951
Cu       2.56934208       4.45023103       5.14678854
Cu       2.56934208       2.96682069       7.23535136
Cu       3.85401312       3.70852585       9.32137484
Cu       5.13868416       4.45023103      11.39715382
Cu       5.13868416       1.48341034       3.04892951
Cu       3.85401312       2.22511551       5.14678854
Cu       3.85401312       0.74170517       7.23535136
Cu       5.13868416       1.48341034       9.32137484
Cu       6.42335520       2.22511551      11.39715382
Cu       6.42335520       3.70852586       3.04892951
Cu       5.13868416       4.45023103       5.14678854
Cu       5.13868416       2.96682068       7.23535136
Cu       6.42335520       3.70852585       9.32137484
Cu       7.70802624       4.45023103      11.39715382
21
Lattice="5.138684163245369 0.0 3.146536556173818e-16 2.5693420816226826 4.4502310273952705 3.1465365561738175e-16 0.0 0.0 27.27216732342242" Properties=species:S:1:pos:R:3 energy=-77.35911032927626 pbc="T T T"
Cu       2.56934208       1.48341034       3.04892951
Cu       1.28467104       2.22511551       5.14678854
Cu       1.28467104       0.74170517       7.22011059
Cu       2.55836886       1.47707495       9.32288054
Cu       3.85401312       2.22511551      11.31754037
Cu       3.85401312       3.70852586       3.04892951
Cu       2.56934208       4.45023103       5.14678854
Cu       2.57173328       2.96544012       7.23316650
Cu       3.85401312       3.72119664       9.32288054
Cu       5.09607802       4.47482969      11.46169994
Cu       5.13868416       1.48341034       3.04892951
Cu       3.85401312       2.22511551       5.14678854
Cu       3.85401312       0.74446629       7.23316650
Cu       5.14965738       1.47707495       9.32288054
Cu       6.42335520       2.17591818      11.46169994
Cu       6.42335520       3.70852586       3.04892951
Cu       5.13868416       4.45023103       5.14678854
Cu       5.13629296       2.96544012       7.23316650
Cu       6.42335520       3.70852586       9.29761331
Cu       7.75063238       4.47482969      11.46169994
O        6.42335520       3.70852586      12.57180800
21
Lattice="5.138684163245369 0.0 3.146536556173818e-16 2.5693420816226826 4.4502310273952705 3.1465365561738175e-16 0.0 0.0 27.27216732342242" Properties=species:S:1:pos:R:3 energy=-74.43837130853365 pbc="T T T"
Cu       2.56934208       1.48341034       3.04892951
Cu       1.28467104       2.22511551       5.14678854
Cu       1.28467104       0.74170517       7.24167122
Cu       2.56598339       1.48147120       9.35252226
Cu       3.85401312       2.22511551      11.40861855
Cu       3.85401312       3.70852586       3.04892951
Cu       2.56934208       4.45023103       5.14678854
Cu       2.57565997       2.96317305       7.23832800
Cu       3.85401312       3.71240414       9.35252226
Cu       5.14116922       4.44879628      11.44708051
Cu       5.13868416       1.48341034       3.04892951
Cu       3.85401312       2.22511551       5.14678854
Cu       3.85401312       0.74900044       7.23832800
Cu       5.14204285       1.48147120       9.35252226
Cu       6.42335520       2.22798501      11.44708051
Cu       6.42335520       3.70852586       3.04892951
Cu       5.13868416       4.45023103       5.14678854
Cu       5.13236627       2.96317305       7.23832800
Cu       6.42335520       3.70852586       9.28410598
Cu       7.70554118       4.44879628      11.44708051
H        6.42335520       3.70852586      12.35138217
22
Lattice="5.138684163245369 0.0 3.146536556173818e-16 2.5693420816226826 4.4502310273952705 3.1465365561738175e-16 0.0 0.0 27.27216732342242" Properties=species:S:1:pos:R:3 energy=-81.4994500864875 pbc="T T T"
Cu       2.56934208       1.48341034       3.04892951
Cu       1.28467104       2.22511551       5.14678854
Cu       1.28467104       0.74170517       7.22495379
Cu       2.55988827       1.47795219       9.33215704
Cu       3.85401312       2.22511551      11.32018492
Cu       3.85401312       3.70852586       3.04892951
Cu       2.56934208       4.45023103       5.14678854
Cu       2.57149631       2.96557694       7.23694924
Cu       3.85401312       3.71944217       9.33215704
Cu       5.10334432       4.47063449      11.42851730
Cu       5.13868416       1.48341034       3.04892951
Cu       3.85401312       2.22511551       5.14678854
Cu       3.85401312       0.74419267       7.23694925
Cu       5.14813797       1.47795219       9.33215704
Cu       6.42335520       2.18430858      11.42851730
Cu       6.42335520       3.70852586       3.04892951
Cu       5.13868416       4.45023103       5.14678854
Cu       5.13652993       2.96557694       7.23694924
Cu       6.42335520       3.70852586       9.31214682
Cu       7.74336608       4.47063449      11.42851730
O        6.42335520       3.70852586      12.80602091
H        6.42335520       3.70852586      13.77865013
